# vtk DataFile Version 3.0
A typical difference finite method solution
ASCII

DATASET UNSTRUCTURED_GRID
POINTS 9 DOUBLE
  0.0  0.0  0.0
  0.5  0.0  0.0
  1.0  0.0  0.0
  0.0  0.5  0.0
  0.5  0.5  0.0
  1.0  0.5  0.0
  0.0  1.0  0.0
  0.5  1.0  0.0
  1.0  1.0  0.0

CELLS 4 20
  4  0  1  4  3
  4  1  2  5  4
  4  3  4  7  6
  4  4  5  8  7

CELL_TYPES 4
  9
  9
  9
  9

CELL_DATA 4
SCALARS pressure DOUBLE
LOOKUP_TABLE DEFAULT
    0.00000
    1.00000
    2.00000
    3.00000


