# vtk DataFile Version 3.0
Little example
ASCII

DATASET UNSTRUCTURED_GRID
POINTS 16 DOUBLE
  0.00   0.00   0.00
  0.33   0.00   0.00
  0.66   0.00   0.00
  1.00   0.00   0.00
  1.00   0.33   0.00
  0.66   0.33   0.00
  0.33   0.33   0.00
  0.00   0.33   0.00
  0.00   0.66   0.00
  0.33   0.66   0.00
  0.66   0.66   0.00
  1.00   0.66   0.00
  1.00   1.00   0.00
  0.66   1.00   0.00
  0.33   1.00   0.00
  0.00   1.00   0.00

CELLS 9 45
  4    0   1   6   7
  4    1   2   5   6
  4    2   3   4   5
  4    7   6   9   8
  4    6   5   10  9
  4    5   4   11  10
  4    8   9   14  15
  4    9   10  13  14
  4    10  11  12  13

CELL_TYPES 9
  9
  9
  9
  9
  9
  9
  9
  9
  9

CELL_DATA 9
VECTORS Velocity DOUBLE
    0.00000    0.0000    0.0000
    1.00000   10.0000    0.0000
    2.00000   20.0000    0.0000
    3.00000   30.0000    0.0000
    0.00000    0.0000    0.0000
    1.00000   10.0000    0.0000
    2.00000   20.0000    0.0000
    3.00000   30.0000    0.0000
   -1.00000  -10.0000    0.0000
   

SCALARS Pressure DOUBLE
LOOKUP_TABLE default
    0.00000
    1.00000
    2.00000
    3.00000
    0.00000
    1.00000
    2.00000
    3.00000
   -1.00000
